# vtk DataFile Version 4.0
vtk output
ASCII
DATASET POLYDATA
POINTS 8 float
12532.5581670096
7310.82655999386
1624.49
12532.5581670096
7310.82655999386
924.49
13572.7957195331
6373.86026693959
1624.49
13572.7957195331
6373.86026693959
924.49
11899.6416247934
4516.29320886188
1624.49
11899.6416247934
4516.29320886188
924.49
10859.4040722698
5453.25950191615
1624.49
10859.4040722698
5453.25950191615
924.49
POLYGONS 6 30
4 0 1 3 2 4 2 3 5 4 4 4 5 7 6 4 0 1 7 6 4 0 2 4 6 4 1 3 5 7
CELL_DATA 6
SCALARS cell_scalars int 1
LOOKUP_TABLE default
0 1 2 3 4 5
LOOKUP_TABLE default 6
0.0 1.0 0.0 1.0 0.0 1.0 0.0 1.0 0.0 1.0 0.0 1.0 0.0 1.0 0.0 1.0 0.0 1.0 0.0 1.0 0.0 1.0 0.0 1.0
