# vtk DataFile Version 4.0
vtk output
ASCII
DATASET POLYDATA
POINTS 8 float
2000.24115236118
10550.7669863372
1624.49
2000.24115236118
10550.7669863372
924.49
3287.31560513081
9780.41683671189
1624.49
3287.31560513081
9780.41683671189
924.49
2003.39868908858
7635.29274876252
1624.49
2003.39868908858
7635.29274876252
924.49
716.324236318961
8405.64289838784
1624.49
716.324236318961
8405.64289838784
924.49
POLYGONS 6 30
4 0 1 3 2 4 2 3 5 4 4 4 5 7 6 4 0 1 7 6 4 0 2 4 6 4 1 3 5 7
CELL_DATA 6
SCALARS cell_scalars int 1
LOOKUP_TABLE default
0 1 2 3 4 5
LOOKUP_TABLE default 6
1.0 0.0 0.0 1.0 1.0 0.0 0.0 1.0 1.0 0.0 0.0 1.0 1.0 0.0 0.0 1.0 1.0 0.0 0.0 1.0 1.0 0.0 0.0 1.0
