# vtk DataFile Version 4.0
vtk output
ASCII
DATASET POLYDATA
POINTS 8 float
7160.58427319173
4642.66803556184
1624.49
7160.58427319173
4642.66803556184
924.49
5777.30129095212
4426.96409251427
1624.49
5777.30129095212
4426.96409251427
924.49
5392.11567836717
6897.11227508501
1624.49
5392.11567836717
6897.11227508501
924.49
6775.39866060678
7112.81621813259
1624.49
6775.39866060678
7112.81621813259
924.49
POLYGONS 6 30
4 0 1 3 2 4 2 3 5 4 4 4 5 7 6 4 0 1 7 6 4 0 2 4 6 4 1 3 5 7
CELL_DATA 6
SCALARS cell_scalars int 1
LOOKUP_TABLE default
0 1 2 3 4 5
LOOKUP_TABLE default 6
0.0 1.0 0.0 1.0 0.0 1.0 0.0 1.0 0.0 1.0 0.0 1.0 0.0 1.0 0.0 1.0 0.0 1.0 0.0 1.0 0.0 1.0 0.0 1.0
