# vtk DataFile Version 4.0
vtk output
ASCII
DATASET POLYDATA
POINTS 8 float
5272.93661323298
9983.41663048465
1624.49
5272.93661323298
9983.41663048465
924.49
4762.55327969574
8679.76450938509
1624.49
4762.55327969574
8679.76450938509
924.49
2434.60306344651
9591.16331927302
1624.49
2434.60306344651
9591.16331927302
924.49
2944.98639698374
10894.8154403726
1624.49
2944.98639698374
10894.8154403726
924.49
POLYGONS 6 30
4 0 1 3 2 4 2 3 5 4 4 4 5 7 6 4 0 1 7 6 4 0 2 4 6 4 1 3 5 7
CELL_DATA 6
SCALARS cell_scalars int 1
LOOKUP_TABLE default
0 1 2 3 4 5
LOOKUP_TABLE default 6
1.0 0.0 0.0 1.0 1.0 0.0 0.0 1.0 1.0 0.0 0.0 1.0 1.0 0.0 0.0 1.0 1.0 0.0 0.0 1.0 1.0 0.0 0.0 1.0
