# vtk DataFile Version 4.0
vtk output
ASCII
DATASET POLYDATA
POINTS 8 float
2785.17996845382
10500.7126519532
1624.49
2785.17996845382
10500.7126519532
924.49
3591.18121725992
9356.00221392834
1624.49
3591.18121725992
9356.00221392834
924.49
1547.05543507272
7916.71426963174
1624.49
1547.05543507272
7916.71426963174
924.49
741.054186266613
9061.42470765656
1624.49
741.054186266613
9061.42470765656
924.49
POLYGONS 6 30
4 0 1 3 2 4 2 3 5 4 4 4 5 7 6 4 0 1 7 6 4 0 2 4 6 4 1 3 5 7
CELL_DATA 6
SCALARS cell_scalars int 1
LOOKUP_TABLE default
0 1 2 3 4 5
LOOKUP_TABLE default 6
1.0 0.0 0.0 1.0 1.0 0.0 0.0 1.0 1.0 0.0 0.0 1.0 1.0 0.0 0.0 1.0 1.0 0.0 0.0 1.0 1.0 0.0 0.0 1.0
