# vtk DataFile Version 4.0
vtk output
ASCII
DATASET POLYDATA
POINTS 8 float
11983.6560591199
6776.13434214134
1624.49
11983.6560591199
6776.13434214134
924.49
13098.1962939665
5772.24188529748
1624.49
13098.1962939665
5772.24188529748
924.49
11425.0421992267
3914.67482721977
1624.49
11425.0421992267
3914.67482721977
924.49
10310.5019643801
4918.56728406363
1624.49
10310.5019643801
4918.56728406363
924.49
POLYGONS 6 30
4 0 1 3 2 4 2 3 5 4 4 4 5 7 6 4 0 1 7 6 4 0 2 4 6 4 1 3 5 7
CELL_DATA 6
SCALARS cell_scalars int 1
LOOKUP_TABLE default
0 1 2 3 4 5
LOOKUP_TABLE default 6
0.0 1.0 0.0 1.0 0.0 1.0 0.0 1.0 0.0 1.0 0.0 1.0 0.0 1.0 0.0 1.0 0.0 1.0 0.0 1.0 0.0 1.0 0.0 1.0
