# vtk DataFile Version 4.0
vtk output
ASCII
DATASET POLYDATA
POINTS 8 float
16953.5108709065
8857.85755165203
1624.49
16953.5108709065
8857.85755165203
924.49
16236.0708213059
7655.65965811327
1624.49
16236.0708213059
7655.65965811327
924.49
14089.2888685581
8936.80260382863
1624.49
14089.2888685581
8936.80260382863
924.49
14806.7289181587
10139.0004973674
1624.49
14806.7289181587
10139.0004973674
924.49
POLYGONS 6 30
4 0 1 3 2 4 2 3 5 4 4 4 5 7 6 4 0 1 7 6 4 0 2 4 6 4 1 3 5 7
CELL_DATA 6
SCALARS cell_scalars int 1
LOOKUP_TABLE default
0 1 2 3 4 5
LOOKUP_TABLE default 6
0.0 1.0 0.0 1.0 0.0 1.0 0.0 1.0 0.0 1.0 0.0 1.0 0.0 1.0 0.0 1.0 0.0 1.0 0.0 1.0 0.0 1.0 0.0 1.0
