# vtk DataFile Version 4.0
vtk output
ASCII
DATASET POLYDATA
POINTS 8 float
16976.9934774134
8902.07043699197
1624.49
16976.9934774134
8902.07043699197
924.49
16208.3077099842
7614.0012653433
1624.49
16208.3077099842
7614.0012653433
924.49
14061.5257572363
8895.14421105867
1624.49
14061.5257572363
8895.14421105867
924.49
14830.2115246656
10183.2133827074
1624.49
14830.2115246656
10183.2133827074
924.49
POLYGONS 6 30
4 0 1 3 2 4 2 3 5 4 4 4 5 7 6 4 0 1 7 6 4 0 2 4 6 4 1 3 5 7
CELL_DATA 6
SCALARS cell_scalars int 1
LOOKUP_TABLE default
0 1 2 3 4 5
LOOKUP_TABLE default 6
1.0 0.0 0.0 1.0 1.0 0.0 0.0 1.0 1.0 0.0 0.0 1.0 1.0 0.0 0.0 1.0 1.0 0.0 0.0 1.0 1.0 0.0 0.0 1.0
