# vtk DataFile Version 4.0
vtk output
ASCII
DATASET POLYDATA
POINTS 8 float
11810.5622600871
5688.54350869297
1624.49
11810.5622600871
5688.54350869297
924.49
11804.614863404
4288.5561414383
1624.49
11804.614863404
4288.5561414383
924.49
9304.63742187781
4299.17649265809
1624.49
9304.63742187781
4299.17649265809
924.49
9310.58481856089
5699.16385991276
1624.49
9310.58481856089
5699.16385991276
924.49
POLYGONS 6 30
4 0 1 3 2 4 2 3 5 4 4 4 5 7 6 4 0 1 7 6 4 0 2 4 6 4 1 3 5 7
CELL_DATA 6
SCALARS cell_scalars int 1
LOOKUP_TABLE default
0 1 2 3 4 5
LOOKUP_TABLE default 6
0.0 1.0 0.0 1.0 0.0 1.0 0.0 1.0 0.0 1.0 0.0 1.0 0.0 1.0 0.0 1.0 0.0 1.0 0.0 1.0 0.0 1.0 0.0 1.0
