# vtk DataFile Version 4.0
vtk output
ASCII
DATASET POLYDATA
POINTS 8 float
14115.8967433042
10503.07333959
1624.49
14115.8967433042
10503.07333959
924.49
14833.7505858209
9185.9986033719
1624.49
14833.7505858209
9185.9986033719
924.49
12638.6260254574
7989.57553251074
1624.49
12638.6260254574
7989.57553251074
924.49
11920.7721829407
9306.65026872885
1624.49
11920.7721829407
9306.65026872885
924.49
POLYGONS 6 30
4 0 1 3 2 4 2 3 5 4 4 4 5 7 6 4 0 1 7 6 4 0 2 4 6 4 1 3 5 7
CELL_DATA 6
SCALARS cell_scalars int 1
LOOKUP_TABLE default
0 1 2 3 4 5
LOOKUP_TABLE default 6
1.0 0.0 0.0 1.0 1.0 0.0 0.0 1.0 1.0 0.0 0.0 1.0 1.0 0.0 0.0 1.0 1.0 0.0 0.0 1.0 1.0 0.0 0.0 1.0
