# vtk DataFile Version 4.0
vtk output
ASCII
DATASET POLYDATA
POINTS 8 float
2669.12709399234
10418.9987454172
1624.49
2669.12709399234
10418.9987454172
924.49
3475.12834279844
9274.28830739238
1624.49
3475.12834279844
9274.28830739238
924.49
1431.00256061123
7835.00036309578
1624.49
1431.00256061123
7835.00036309578
924.49
625.001311805126
8979.71080112061
1624.49
625.001311805126
8979.71080112061
924.49
POLYGONS 6 30
4 0 1 3 2 4 2 3 5 4 4 4 5 7 6 4 0 1 7 6 4 0 2 4 6 4 1 3 5 7
CELL_DATA 6
SCALARS cell_scalars int 1
LOOKUP_TABLE default
0 1 2 3 4 5
LOOKUP_TABLE default 6
0.0 1.0 0.0 1.0 0.0 1.0 0.0 1.0 0.0 1.0 0.0 1.0 0.0 1.0 0.0 1.0 0.0 1.0 0.0 1.0 0.0 1.0 0.0 1.0
