# vtk DataFile Version 4.0
vtk output
ASCII
DATASET POLYDATA
POINTS 8 float
16098.2666999042
9938.30222498852
1624.49
16098.2666999042
9938.30222498852
924.49
15912.736193734
8449.82030327089
1624.49
15912.736193734
8449.82030327089
924.49
13431.9329908713
8759.03781355448
1624.49
13431.9329908713
8759.03781355448
924.49
13617.4634970415
10247.5197352721
1624.49
13617.4634970415
10247.5197352721
924.49
POLYGONS 6 30
4 0 1 3 2 4 2 3 5 4 4 4 5 7 6 4 0 1 7 6 4 0 2 4 6 4 1 3 5 7
CELL_DATA 6
SCALARS cell_scalars int 1
LOOKUP_TABLE default
0 1 2 3 4 5
LOOKUP_TABLE default 6
0.0 1.0 0.0 1.0 0.0 1.0 0.0 1.0 0.0 1.0 0.0 1.0 0.0 1.0 0.0 1.0 0.0 1.0 0.0 1.0 0.0 1.0 0.0 1.0
