# vtk DataFile Version 4.0
vtk output
ASCII
DATASET POLYDATA
POINTS 8 float
13757.435296089
10307.698756659
1624.49
13757.435296089
10307.698756659
924.49
14475.2891386057
8990.62402044093
1624.49
14475.2891386057
8990.62402044093
924.49
12280.1645782422
7794.20094957978
1624.49
12280.1645782422
7794.20094957978
924.49
11562.3107357255
9111.27568579789
1624.49
11562.3107357255
9111.27568579789
924.49
POLYGONS 6 30
4 0 1 3 2 4 2 3 5 4 4 4 5 7 6 4 0 1 7 6 4 0 2 4 6 4 1 3 5 7
CELL_DATA 6
SCALARS cell_scalars int 1
LOOKUP_TABLE default
0 1 2 3 4 5
LOOKUP_TABLE default 6
0.0 1.0 0.0 1.0 0.0 1.0 0.0 1.0 0.0 1.0 0.0 1.0 0.0 1.0 0.0 1.0 0.0 1.0 0.0 1.0 0.0 1.0 0.0 1.0
