# vtk DataFile Version 4.0
vtk output
ASCII
DATASET POLYDATA
POINTS 8 float
11948.0807335362
8160.14648751732
1624.49
11948.0807335362
8160.14648751732
924.49
13321.3267609309
7887.75825677886
1624.49
13321.3267609309
7887.75825677886
924.49
12834.9192060407
5435.53320785986
1624.49
12834.9192060407
5435.53320785986
924.49
11461.6731786461
5707.92143859832
1624.49
11461.6731786461
5707.92143859832
924.49
POLYGONS 6 30
4 0 1 3 2 4 2 3 5 4 4 4 5 7 6 4 0 1 7 6 4 0 2 4 6 4 1 3 5 7
CELL_DATA 6
SCALARS cell_scalars int 1
LOOKUP_TABLE default
0 1 2 3 4 5
LOOKUP_TABLE default 6
0.0 1.0 0.0 1.0 0.0 1.0 0.0 1.0 0.0 1.0 0.0 1.0 0.0 1.0 0.0 1.0 0.0 1.0 0.0 1.0 0.0 1.0 0.0 1.0
