# vtk DataFile Version 4.0
vtk output
ASCII
DATASET POLYDATA
POINTS 8 float
16092.0823496985
9888.68616093127
1624.49
16092.0823496985
9888.68616093127
924.49
15918.9205439397
8499.43636732815
1624.49
15918.9205439397
8499.43636732815
924.49
13438.117341077
8808.65387761174
1624.49
13438.117341077
8808.65387761174
924.49
13611.2791468358
10197.9036712149
1624.49
13611.2791468358
10197.9036712149
924.49
POLYGONS 6 30
4 0 1 3 2 4 2 3 5 4 4 4 5 7 6 4 0 1 7 6 4 0 2 4 6 4 1 3 5 7
CELL_DATA 6
SCALARS cell_scalars int 1
LOOKUP_TABLE default
0 1 2 3 4 5
LOOKUP_TABLE default 6
0.0 1.0 0.0 1.0 0.0 1.0 0.0 1.0 0.0 1.0 0.0 1.0 0.0 1.0 0.0 1.0 0.0 1.0 0.0 1.0 0.0 1.0 0.0 1.0
