# vtk DataFile Version 4.0
vtk output
ASCII
DATASET POLYDATA
POINTS 8 float
6970.90045262958
6862.96398364575
1624.49
6970.90045262958
6862.96398364575
924.49
5626.75240392813
6471.47193625263
1624.49
5626.75240392813
6471.47193625263
924.49
4927.65946215469
8871.73630893381
1624.49
4927.65946215469
8871.73630893381
924.49
6271.80751085614
9263.22835632694
1624.49
6271.80751085614
9263.22835632694
924.49
POLYGONS 6 30
4 0 1 3 2 4 2 3 5 4 4 4 5 7 6 4 0 1 7 6 4 0 2 4 6 4 1 3 5 7
CELL_DATA 6
SCALARS cell_scalars int 1
LOOKUP_TABLE default
0 1 2 3 4 5
LOOKUP_TABLE default 6
0.0 1.0 0.0 1.0 0.0 1.0 0.0 1.0 0.0 1.0 0.0 1.0 0.0 1.0 0.0 1.0 0.0 1.0 0.0 1.0 0.0 1.0 0.0 1.0
