# vtk DataFile Version 4.0
vtk output
ASCII
DATASET POLYDATA
POINTS 8 float
2043.14363412017
10525.0886480164
1624.49
2043.14363412017
10525.0886480164
924.49
3244.41312337182
9806.09517503274
1624.49
3244.41312337182
9806.09517503274
924.49
1960.4962073296
7660.97108708336
1624.49
1960.4962073296
7660.97108708336
924.49
759.226718077948
8379.96456006699
1624.49
759.226718077948
8379.96456006699
924.49
POLYGONS 6 30
4 0 1 3 2 4 2 3 5 4 4 4 5 7 6 4 0 1 7 6 4 0 2 4 6 4 1 3 5 7
CELL_DATA 6
SCALARS cell_scalars int 1
LOOKUP_TABLE default
0 1 2 3 4 5
LOOKUP_TABLE default 6
1.0 0.0 0.0 1.0 1.0 0.0 0.0 1.0 1.0 0.0 0.0 1.0 1.0 0.0 0.0 1.0 1.0 0.0 0.0 1.0 1.0 0.0 0.0 1.0
