# vtk DataFile Version 4.0
vtk output
ASCII
DATASET POLYDATA
POINTS 8 float
12866.8596553643
10475.524930385
1624.49
12866.8596553643
10475.524930385
924.49
14154.0254830768
9924.88518248342
1624.49
14154.0254830768
9924.88518248342
924.49
13170.7402189669
7626.37477585387
1624.49
13170.7402189669
7626.37477585387
924.49
11883.5743912544
8177.0145237554
1624.49
11883.5743912544
8177.0145237554
924.49
POLYGONS 6 30
4 0 1 3 2 4 2 3 5 4 4 4 5 7 6 4 0 1 7 6 4 0 2 4 6 4 1 3 5 7
CELL_DATA 6
SCALARS cell_scalars int 1
LOOKUP_TABLE default
0 1 2 3 4 5
LOOKUP_TABLE default 6
0.0 1.0 0.0 1.0 0.0 1.0 0.0 1.0 0.0 1.0 0.0 1.0 0.0 1.0 0.0 1.0 0.0 1.0 0.0 1.0 0.0 1.0 0.0 1.0
