# vtk DataFile Version 4.0
vtk output
ASCII
DATASET POLYDATA
POINTS 8 float
11899.0362325579
8169.87463861513
1624.49
11899.0362325579
8169.87463861513
924.49
13370.3712619092
7878.03010568105
1624.49
13370.3712619092
7878.03010568105
924.49
12883.9637070191
5425.80505676206
1624.49
12883.9637070191
5425.80505676206
924.49
11412.6286776677
5717.64958969612
1624.49
11412.6286776677
5717.64958969612
924.49
POLYGONS 6 30
4 0 1 3 2 4 2 3 5 4 4 4 5 7 6 4 0 1 7 6 4 0 2 4 6 4 1 3 5 7
CELL_DATA 6
SCALARS cell_scalars int 1
LOOKUP_TABLE default
0 1 2 3 4 5
LOOKUP_TABLE default 6
0.0 1.0 0.0 1.0 0.0 1.0 0.0 1.0 0.0 1.0 0.0 1.0 0.0 1.0 0.0 1.0 0.0 1.0 0.0 1.0 0.0 1.0 0.0 1.0
