# vtk DataFile Version 4.0
vtk output
ASCII
DATASET POLYDATA
POINTS 8 float
15121.5667102825
10060.0421271042
1624.49
15121.5667102825
10060.0421271042
924.49
14936.0362041123
8571.5602053866
1624.49
14936.0362041123
8571.5602053866
924.49
12455.2330012496
8880.77771567019
1624.49
12455.2330012496
8880.77771567019
924.49
12640.7635074197
10369.2596373878
1624.49
12640.7635074197
10369.2596373878
924.49
POLYGONS 6 30
4 0 1 3 2 4 2 3 5 4 4 4 5 7 6 4 0 1 7 6 4 0 2 4 6 4 1 3 5 7
CELL_DATA 6
SCALARS cell_scalars int 1
LOOKUP_TABLE default
0 1 2 3 4 5
LOOKUP_TABLE default 6
0.0 1.0 0.0 1.0 0.0 1.0 0.0 1.0 0.0 1.0 0.0 1.0 0.0 1.0 0.0 1.0 0.0 1.0 0.0 1.0 0.0 1.0 0.0 1.0
