# vtk DataFile Version 4.0
vtk output
ASCII
DATASET POLYDATA
POINTS 8 float
685.434393863603
9338.99912029489
1624.49
685.434393863603
9338.99912029489
924.49
2085.18441773879
9365.45418902294
1624.49
2085.18441773879
9365.45418902294
924.49
2132.42561189603
6865.9005749601
1624.49
2132.42561189603
6865.9005749601
924.49
732.675588020845
6839.44550623204
1624.49
732.675588020845
6839.44550623204
924.49
POLYGONS 6 30
4 0 1 3 2 4 2 3 5 4 4 4 5 7 6 4 0 1 7 6 4 0 2 4 6 4 1 3 5 7
CELL_DATA 6
SCALARS cell_scalars int 1
LOOKUP_TABLE default
0 1 2 3 4 5
LOOKUP_TABLE default 6
0.0 1.0 0.0 1.0 0.0 1.0 0.0 1.0 0.0 1.0 0.0 1.0 0.0 1.0 0.0 1.0 0.0 1.0 0.0 1.0 0.0 1.0 0.0 1.0
