# vtk DataFile Version 4.0
vtk output
ASCII
DATASET POLYDATA
POINTS 8 float
4981.45920776155
10670.9282980026
1624.49
4981.45920776155
10670.9282980026
924.49
5196.43191588983
9287.53148769839
1624.49
5196.43191588983
9287.53148769839
924.49
2726.08046891794
8903.65165175503
1624.49
2726.08046891794
8903.65165175503
924.49
2511.10776078966
10287.0484620593
1624.49
2511.10776078966
10287.0484620593
924.49
POLYGONS 6 30
4 0 1 3 2 4 2 3 5 4 4 4 5 7 6 4 0 1 7 6 4 0 2 4 6 4 1 3 5 7
CELL_DATA 6
SCALARS cell_scalars int 1
LOOKUP_TABLE default
0 1 2 3 4 5
LOOKUP_TABLE default 6
0.0 1.0 0.0 1.0 0.0 1.0 0.0 1.0 0.0 1.0 0.0 1.0 0.0 1.0 0.0 1.0 0.0 1.0 0.0 1.0 0.0 1.0 0.0 1.0
