# vtk DataFile Version 4.0
vtk output
ASCII
DATASET POLYDATA
POINTS 8 float
12656.3572372225
6103.91961427384
1624.49
12656.3572372225
6103.91961427384
924.49
12916.9512103073
4728.3867062008
1624.49
12916.9512103073
4728.3867062008
924.49
10460.6424458912
4263.04032569223
1624.49
10460.6424458912
4263.04032569223
924.49
10200.0484728064
5638.57323376526
1624.49
10200.0484728064
5638.57323376526
924.49
POLYGONS 6 30
4 0 1 3 2 4 2 3 5 4 4 4 5 7 6 4 0 1 7 6 4 0 2 4 6 4 1 3 5 7
CELL_DATA 6
SCALARS cell_scalars int 1
LOOKUP_TABLE default
0 1 2 3 4 5
LOOKUP_TABLE default 6
0.0 1.0 0.0 1.0 0.0 1.0 0.0 1.0 0.0 1.0 0.0 1.0 0.0 1.0 0.0 1.0 0.0 1.0 0.0 1.0 0.0 1.0 0.0 1.0
