# vtk DataFile Version 4.0
vtk output
ASCII
DATASET POLYDATA
POINTS 8 float
9340.0580198485
5550.18295331977
1624.49
9340.0580198485
5550.18295331977
924.49
9172.66777808004
4160.22593709205
1624.49
9172.66777808004
4160.22593709205
924.49
6690.60167767339
4459.13708310716
1624.49
6690.60167767339
4459.13708310716
924.49
6857.99191944184
5849.09409933488
1624.49
6857.99191944184
5849.09409933488
924.49
POLYGONS 6 30
4 0 1 3 2 4 2 3 5 4 4 4 5 7 6 4 0 1 7 6 4 0 2 4 6 4 1 3 5 7
CELL_DATA 6
SCALARS cell_scalars int 1
LOOKUP_TABLE default
0 1 2 3 4 5
LOOKUP_TABLE default 6
0.0 1.0 0.0 1.0 0.0 1.0 0.0 1.0 0.0 1.0 0.0 1.0 0.0 1.0 0.0 1.0 0.0 1.0 0.0 1.0 0.0 1.0 0.0 1.0
