# vtk DataFile Version 4.0
vtk output
ASCII
DATASET POLYDATA
POINTS 8 float
6307.59129849233
9578.34652107756
1624.49
6307.59129849233
9578.34652107756
924.49
5797.20796495509
8274.69439997799
1624.49
5797.20796495509
8274.69439997799
924.49
3469.25774870585
9186.09320986593
1624.49
3469.25774870585
9186.09320986593
924.49
3979.64108224308
10489.7453309655
1624.49
3979.64108224308
10489.7453309655
924.49
POLYGONS 6 30
4 0 1 3 2 4 2 3 5 4 4 4 5 7 6 4 0 1 7 6 4 0 2 4 6 4 1 3 5 7
CELL_DATA 6
SCALARS cell_scalars int 1
LOOKUP_TABLE default
0 1 2 3 4 5
LOOKUP_TABLE default 6
0.0 1.0 0.0 1.0 0.0 1.0 0.0 1.0 0.0 1.0 0.0 1.0 0.0 1.0 0.0 1.0 0.0 1.0 0.0 1.0 0.0 1.0 0.0 1.0
