# vtk DataFile Version 4.0
vtk output
ASCII
DATASET POLYDATA
POINTS 8 float
2023.86342575671
10492.8759410535
1624.49
2023.86342575671
10492.8759410535
924.49
3225.13291500836
9773.88246806987
1624.49
3225.13291500836
9773.88246806987
924.49
1941.21599896614
7628.75838012049
1624.49
1941.21599896614
7628.75838012049
924.49
739.94650971449
8347.75185310413
1624.49
739.94650971449
8347.75185310413
924.49
POLYGONS 6 30
4 0 1 3 2 4 2 3 5 4 4 4 5 7 6 4 0 1 7 6 4 0 2 4 6 4 1 3 5 7
CELL_DATA 6
SCALARS cell_scalars int 1
LOOKUP_TABLE default
0 1 2 3 4 5
LOOKUP_TABLE default 6
1.0 0.0 0.0 1.0 1.0 0.0 0.0 1.0 1.0 0.0 0.0 1.0 1.0 0.0 0.0 1.0 1.0 0.0 0.0 1.0 1.0 0.0 0.0 1.0
