# vtk DataFile Version 4.0
vtk output
ASCII
DATASET POLYDATA
POINTS 8 float
14550.9636761067
10683.2563337196
1624.49
14550.9636761067
10683.2563337196
924.49
15220.9605957889
9453.98657991601
1624.49
15220.9605957889
9453.98657991601
924.49
13025.8360354254
8257.56350905485
1624.49
13025.8360354254
8257.56350905485
924.49
12355.8391157431
9486.83326285842
1624.49
12355.8391157431
9486.83326285842
924.49
POLYGONS 6 30
4 0 1 3 2 4 2 3 5 4 4 4 5 7 6 4 0 1 7 6 4 0 2 4 6 4 1 3 5 7
CELL_DATA 6
SCALARS cell_scalars int 1
LOOKUP_TABLE default
0 1 2 3 4 5
LOOKUP_TABLE default 6
0.0 1.0 0.0 1.0 0.0 1.0 0.0 1.0 0.0 1.0 0.0 1.0 0.0 1.0 0.0 1.0 0.0 1.0 0.0 1.0 0.0 1.0 0.0 1.0
