# vtk DataFile Version 4.0
vtk output
ASCII
DATASET POLYDATA
POINTS 8 float
1450.2537162751
9534.508628094
1624.49
1450.2537162751
9534.508628094
924.49
2651.52320552675
8815.51515511036
1624.49
2651.52320552675
8815.51515511036
924.49
1367.60628948453
6670.39106716098
1624.49
1367.60628948453
6670.39106716098
924.49
166.336800232884
7389.38454014462
1624.49
166.336800232884
7389.38454014462
924.49
POLYGONS 6 30
4 0 1 3 2 4 2 3 5 4 4 4 5 7 6 4 0 1 7 6 4 0 2 4 6 4 1 3 5 7
CELL_DATA 6
SCALARS cell_scalars int 1
LOOKUP_TABLE default
0 1 2 3 4 5
LOOKUP_TABLE default 6
1.0 0.0 0.0 1.0 1.0 0.0 0.0 1.0 1.0 0.0 0.0 1.0 1.0 0.0 0.0 1.0 1.0 0.0 0.0 1.0 1.0 0.0 0.0 1.0
