# vtk DataFile Version 4.0
vtk output
ASCII
DATASET POLYDATA
POINTS 8 float
12182.5914328624
6065.05430399579
1624.49
12182.5914328624
6065.05430399579
924.49
12461.7992611676
4591.2690453461
1624.49
12461.7992611676
4591.2690453461
924.49
10005.4904967514
4125.92266483753
1624.49
10005.4904967514
4125.92266483753
924.49
9726.28266844627
5599.70792348721
1624.49
9726.28266844627
5599.70792348721
924.49
POLYGONS 6 30
4 0 1 3 2 4 2 3 5 4 4 4 5 7 6 4 0 1 7 6 4 0 2 4 6 4 1 3 5 7
CELL_DATA 6
SCALARS cell_scalars int 1
LOOKUP_TABLE default
0 1 2 3 4 5
LOOKUP_TABLE default 6
0.0 1.0 0.0 1.0 0.0 1.0 0.0 1.0 0.0 1.0 0.0 1.0 0.0 1.0 0.0 1.0 0.0 1.0 0.0 1.0 0.0 1.0 0.0 1.0
