# vtk DataFile Version 4.0
vtk output
ASCII
DATASET POLYDATA
POINTS 8 float
1892.94119358239
10274.1355923782
1624.49
1892.94119358239
10274.1355923782
924.49
3094.21068283403
9555.14211939453
1624.49
3094.21068283403
9555.14211939453
924.49
1810.29376679181
7410.01803144515
1624.49
1810.29376679181
7410.01803144515
924.49
609.024277540166
8129.01150442879
1624.49
609.024277540166
8129.01150442879
924.49
POLYGONS 6 30
4 0 1 3 2 4 2 3 5 4 4 4 5 7 6 4 0 1 7 6 4 0 2 4 6 4 1 3 5 7
CELL_DATA 6
SCALARS cell_scalars int 1
LOOKUP_TABLE default
0 1 2 3 4 5
LOOKUP_TABLE default 6
0.0 1.0 0.0 1.0 0.0 1.0 0.0 1.0 0.0 1.0 0.0 1.0 0.0 1.0 0.0 1.0 0.0 1.0 0.0 1.0 0.0 1.0 0.0 1.0
