# vtk DataFile Version 4.0
vtk output
ASCII
DATASET POLYDATA
POINTS 8 float
16854.5402764581
7068.40312037195
1624.49
16854.5402764581
7068.40312037195
924.49
15523.6095499914
6634.09516356393
1624.49
15523.6095499914
6634.09516356393
924.49
14748.05962712
9010.75717511166
1624.49
14748.05962712
9010.75717511166
924.49
16078.9903535867
9445.06513191966
1624.49
16078.9903535867
9445.06513191966
924.49
POLYGONS 6 30
4 0 1 3 2 4 2 3 5 4 4 4 5 7 6 4 0 1 7 6 4 0 2 4 6 4 1 3 5 7
CELL_DATA 6
SCALARS cell_scalars int 1
LOOKUP_TABLE default
0 1 2 3 4 5
LOOKUP_TABLE default 6
0.0 1.0 0.0 1.0 0.0 1.0 0.0 1.0 0.0 1.0 0.0 1.0 0.0 1.0 0.0 1.0 0.0 1.0 0.0 1.0 0.0 1.0 0.0 1.0
