# vtk DataFile Version 4.0
vtk output
ASCII
DATASET POLYDATA
POINTS 8 float
8370.52372804581
4802.40928842396
1624.49
8370.52372804581
4802.40928842396
924.49
7425.40284632493
3769.57507184555
1624.49
7425.40284632493
3769.57507184555
924.49
5581.05603100634
5457.29093206141
1624.49
5581.05603100634
5457.29093206141
924.49
6526.17691272721
6490.12514863982
1624.49
6526.17691272721
6490.12514863982
924.49
POLYGONS 6 30
4 0 1 3 2 4 2 3 5 4 4 4 5 7 6 4 0 1 7 6 4 0 2 4 6 4 1 3 5 7
CELL_DATA 6
SCALARS cell_scalars int 1
LOOKUP_TABLE default
0 1 2 3 4 5
LOOKUP_TABLE default 6
0.0 1.0 0.0 1.0 0.0 1.0 0.0 1.0 0.0 1.0 0.0 1.0 0.0 1.0 0.0 1.0 0.0 1.0 0.0 1.0 0.0 1.0 0.0 1.0
