# vtk DataFile Version 4.0
vtk output
ASCII
DATASET POLYDATA
POINTS 8 float
7103.05368858348
8417.84571176668
1624.49
7103.05368858348
8417.84571176668
924.49
6179.27116562078
7365.88285583085
1624.49
6179.27116562078
7365.88285583085
924.49
4300.76606573537
9015.49450397853
1624.49
4300.76606573537
9015.49450397853
924.49
5224.54858869806
10067.4573599144
1624.49
5224.54858869806
10067.4573599144
924.49
POLYGONS 6 30
4 0 1 3 2 4 2 3 5 4 4 4 5 7 6 4 0 1 7 6 4 0 2 4 6 4 1 3 5 7
CELL_DATA 6
SCALARS cell_scalars int 1
LOOKUP_TABLE default
0 1 2 3 4 5
LOOKUP_TABLE default 6
0.0 1.0 0.0 1.0 0.0 1.0 0.0 1.0 0.0 1.0 0.0 1.0 0.0 1.0 0.0 1.0 0.0 1.0 0.0 1.0 0.0 1.0 0.0 1.0
