# vtk DataFile Version 4.0
vtk output
ASCII
DATASET POLYDATA
POINTS 8 float
3870.28924182733
10498.2582332834
1624.49
3870.28924182733
10498.2582332834
924.49
4085.26194995561
9114.8614229791
1624.49
4085.26194995561
9114.8614229791
924.49
1614.91050298373
8730.98158703574
1624.49
1614.91050298373
8730.98158703574
924.49
1399.93779485544
10114.37839734
1624.49
1399.93779485544
10114.37839734
924.49
POLYGONS 6 30
4 0 1 3 2 4 2 3 5 4 4 4 5 7 6 4 0 1 7 6 4 0 2 4 6 4 1 3 5 7
CELL_DATA 6
SCALARS cell_scalars int 1
LOOKUP_TABLE default
0 1 2 3 4 5
LOOKUP_TABLE default 6
0.0 1.0 0.0 1.0 0.0 1.0 0.0 1.0 0.0 1.0 0.0 1.0 0.0 1.0 0.0 1.0 0.0 1.0 0.0 1.0 0.0 1.0 0.0 1.0
