# vtk DataFile Version 4.0
vtk output
ASCII
DATASET POLYDATA
POINTS 8 float
6700.2334182613
8838.12511908989
1624.49
6700.2334182613
8838.12511908989
924.49
5710.46642937269
7711.02205915864
1624.49
5710.46642937269
7711.02205915864
924.49
3831.96132948729
9360.63370730632
1624.49
3831.96132948729
9360.63370730632
924.49
4821.72831837588
10487.7367672376
1624.49
4821.72831837588
10487.7367672376
924.49
POLYGONS 6 30
4 0 1 3 2 4 2 3 5 4 4 4 5 7 6 4 0 1 7 6 4 0 2 4 6 4 1 3 5 7
CELL_DATA 6
SCALARS cell_scalars int 1
LOOKUP_TABLE default
0 1 2 3 4 5
LOOKUP_TABLE default 6
0.0 1.0 0.0 1.0 0.0 1.0 0.0 1.0 0.0 1.0 0.0 1.0 0.0 1.0 0.0 1.0 0.0 1.0 0.0 1.0 0.0 1.0 0.0 1.0
