# vtk DataFile Version 4.0
vtk output
ASCII
DATASET POLYDATA
POINTS 8 float
3361.66213909608
10906.6191013203
1624.49
3361.66213909608
10906.6191013203
924.49
4167.66338790218
9761.90866329544
1624.49
4167.66338790218
9761.90866329544
924.49
2123.53760571497
8322.62071899883
1624.49
2123.53760571497
8322.62071899883
924.49
1317.53635690887
9467.33115702366
1624.49
1317.53635690887
9467.33115702366
924.49
POLYGONS 6 30
4 0 1 3 2 4 2 3 5 4 4 4 5 7 6 4 0 1 7 6 4 0 2 4 6 4 1 3 5 7
CELL_DATA 6
SCALARS cell_scalars int 1
LOOKUP_TABLE default
0 1 2 3 4 5
LOOKUP_TABLE default 6
1.0 0.0 0.0 1.0 1.0 0.0 0.0 1.0 1.0 0.0 0.0 1.0 1.0 0.0 0.0 1.0 1.0 0.0 0.0 1.0 1.0 0.0 0.0 1.0
