# vtk DataFile Version 4.0
vtk output
ASCII
DATASET POLYDATA
POINTS 8 float
6407.8966231381
9539.07671501836
1624.49
6407.8966231381
9539.07671501836
924.49
5897.51328960086
8235.42459391879
1624.49
5897.51328960086
8235.42459391879
924.49
3569.56307335163
9146.82340380672
1624.49
3569.56307335163
9146.82340380672
924.49
4079.94640688886
10450.4755249063
1624.49
4079.94640688886
10450.4755249063
924.49
POLYGONS 6 30
4 0 1 3 2 4 2 3 5 4 4 4 5 7 6 4 0 1 7 6 4 0 2 4 6 4 1 3 5 7
CELL_DATA 6
SCALARS cell_scalars int 1
LOOKUP_TABLE default
0 1 2 3 4 5
LOOKUP_TABLE default 6
0.0 1.0 0.0 1.0 0.0 1.0 0.0 1.0 0.0 1.0 0.0 1.0 0.0 1.0 0.0 1.0 0.0 1.0 0.0 1.0 0.0 1.0 0.0 1.0
