# vtk DataFile Version 4.0
vtk output
ASCII
DATASET POLYDATA
POINTS 8 float
16403.4365657281
-689.502092967402
1624.49
16403.4365657281
-689.502092967402
924.49
15003.5246201302
-673.800355088765
1624.49
15003.5246201302
-673.800355088765
924.49
15031.5634377707
1826.04240490741
1624.49
15031.5634377707
1826.04240490741
924.49
16431.4753833686
1810.34066702876
1624.49
16431.4753833686
1810.34066702876
924.49
POLYGONS 6 30
4 0 1 3 2 4 2 3 5 4 4 4 5 7 6 4 0 1 7 6 4 0 2 4 6 4 1 3 5 7
CELL_DATA 6
SCALARS cell_scalars int 1
LOOKUP_TABLE default
0 1 2 3 4 5
LOOKUP_TABLE default 6
0.0 1.0 0.0 1.0 0.0 1.0 0.0 1.0 0.0 1.0 0.0 1.0 0.0 1.0 0.0 1.0 0.0 1.0 0.0 1.0 0.0 1.0 0.0 1.0
