# vtk DataFile Version 4.0
vtk output
ASCII
DATASET POLYDATA
POINTS 8 float
2666.27870282744
10478.1440025189
1624.49
2666.27870282744
10478.1440025189
924.49
3529.85146940541
9251.66853320662
1624.49
3529.85146940541
9251.66853320662
924.49
1485.7256872182
7812.38058891002
1624.49
1485.7256872182
7812.38058891002
924.49
622.152920640231
9038.85605822233
1624.49
622.152920640231
9038.85605822233
924.49
POLYGONS 6 30
4 0 1 3 2 4 2 3 5 4 4 4 5 7 6 4 0 1 7 6 4 0 2 4 6 4 1 3 5 7
CELL_DATA 6
SCALARS cell_scalars int 1
LOOKUP_TABLE default
0 1 2 3 4 5
LOOKUP_TABLE default 6
0.0 1.0 0.0 1.0 0.0 1.0 0.0 1.0 0.0 1.0 0.0 1.0 0.0 1.0 0.0 1.0 0.0 1.0 0.0 1.0 0.0 1.0 0.0 1.0
