# vtk DataFile Version 4.0
vtk output
ASCII
DATASET POLYDATA
POINTS 8 float
12647.0503096124
6153.04578956216
1624.49
12647.0503096124
6153.04578956216
924.49
12926.2581379175
4679.26053091248
1624.49
12926.2581379175
4679.26053091248
924.49
10469.9493735014
4213.9141504039
1624.49
10469.9493735014
4213.9141504039
924.49
10190.7415451962
5687.69940905358
1624.49
10190.7415451962
5687.69940905358
924.49
POLYGONS 6 30
4 0 1 3 2 4 2 3 5 4 4 4 5 7 6 4 0 1 7 6 4 0 2 4 6 4 1 3 5 7
CELL_DATA 6
SCALARS cell_scalars int 1
LOOKUP_TABLE default
0 1 2 3 4 5
LOOKUP_TABLE default 6
0.0 1.0 0.0 1.0 0.0 1.0 0.0 1.0 0.0 1.0 0.0 1.0 0.0 1.0 0.0 1.0 0.0 1.0 0.0 1.0 0.0 1.0 0.0 1.0
