# vtk DataFile Version 4.0
vtk output
ASCII
DATASET POLYDATA
POINTS 8 float
16979.1337298208
8900.79319070698
1624.49
16979.1337298208
8900.79319070698
924.49
16210.4479623916
7612.72401905831
1624.49
16210.4479623916
7612.72401905831
924.49
14063.6660096438
8893.86696477367
1624.49
14063.6660096438
8893.86696477367
924.49
14832.351777073
10181.9361364224
1624.49
14832.351777073
10181.9361364224
924.49
POLYGONS 6 30
4 0 1 3 2 4 2 3 5 4 4 4 5 7 6 4 0 1 7 6 4 0 2 4 6 4 1 3 5 7
CELL_DATA 6
SCALARS cell_scalars int 1
LOOKUP_TABLE default
0 1 2 3 4 5
LOOKUP_TABLE default 6
1.0 0.0 0.0 1.0 1.0 0.0 0.0 1.0 1.0 0.0 0.0 1.0 1.0 0.0 0.0 1.0 1.0 0.0 0.0 1.0 1.0 0.0 0.0 1.0
