# vtk DataFile Version 4.0
vtk output
ASCII
DATASET POLYDATA
POINTS 8 float
12147.1428553851
9564.98287693365
1624.49
12147.1428553851
9564.98287693365
924.49
13621.4640060348
9288.61872450599
1624.49
13621.4640060348
9288.61872450599
924.49
13160.857085322
6831.41680675655
1624.49
13160.857085322
6831.41680675655
924.49
11686.5359346724
7107.7809591842
1624.49
11686.5359346724
7107.7809591842
924.49
POLYGONS 6 30
4 0 1 3 2 4 2 3 5 4 4 4 5 7 6 4 0 1 7 6 4 0 2 4 6 4 1 3 5 7
CELL_DATA 6
SCALARS cell_scalars int 1
LOOKUP_TABLE default
0 1 2 3 4 5
LOOKUP_TABLE default 6
0.0 1.0 0.0 1.0 0.0 1.0 0.0 1.0 0.0 1.0 0.0 1.0 0.0 1.0 0.0 1.0 0.0 1.0 0.0 1.0 0.0 1.0 0.0 1.0
