# vtk DataFile Version 4.0
vtk output
ASCII
DATASET POLYDATA
POINTS 8 float
16902.0735166891
7083.91411882937
1624.49
16902.0735166891
7083.91411882937
924.49
15476.0763097604
6618.5841651065
1624.49
15476.0763097604
6618.5841651065
924.49
14700.526386889
8995.24617665423
1624.49
14700.526386889
8995.24617665423
924.49
16126.5235938176
9460.57613037709
1624.49
16126.5235938176
9460.57613037709
924.49
POLYGONS 6 30
4 0 1 3 2 4 2 3 5 4 4 4 5 7 6 4 0 1 7 6 4 0 2 4 6 4 1 3 5 7
CELL_DATA 6
SCALARS cell_scalars int 1
LOOKUP_TABLE default
0 1 2 3 4 5
LOOKUP_TABLE default 6
0.0 1.0 0.0 1.0 0.0 1.0 0.0 1.0 0.0 1.0 0.0 1.0 0.0 1.0 0.0 1.0 0.0 1.0 0.0 1.0 0.0 1.0 0.0 1.0
