# vtk DataFile Version 4.0
vtk output
ASCII
DATASET POLYDATA
POINTS 8 float
635.443321582346
9338.05429641174
1624.49
635.443321582346
9338.05429641174
924.49
2135.17549002005
9366.39901290609
1624.49
2135.17549002005
9366.39901290609
924.49
2182.41668417729
6866.84539884324
1624.49
2182.41668417729
6866.84539884324
924.49
682.684515739588
6838.5006823489
1624.49
682.684515739588
6838.5006823489
924.49
POLYGONS 6 30
4 0 1 3 2 4 2 3 5 4 4 4 5 7 6 4 0 1 7 6 4 0 2 4 6 4 1 3 5 7
CELL_DATA 6
SCALARS cell_scalars int 1
LOOKUP_TABLE default
0 1 2 3 4 5
LOOKUP_TABLE default 6
0.0 1.0 0.0 1.0 0.0 1.0 0.0 1.0 0.0 1.0 0.0 1.0 0.0 1.0 0.0 1.0 0.0 1.0 0.0 1.0 0.0 1.0 0.0 1.0
