# vtk DataFile Version 4.0
vtk output
ASCII
DATASET POLYDATA
POINTS 8 float
1407.35123451612
9560.18696641485
1624.49
1407.35123451612
9560.18696641485
924.49
2694.42568728574
8789.83681678952
1624.49
2694.42568728574
8789.83681678952
924.49
1410.50877124352
6644.71272884014
1624.49
1410.50877124352
6644.71272884014
924.49
123.434318473897
7415.06287846547
1624.49
123.434318473897
7415.06287846547
924.49
POLYGONS 6 30
4 0 1 3 2 4 2 3 5 4 4 4 5 7 6 4 0 1 7 6 4 0 2 4 6 4 1 3 5 7
CELL_DATA 6
SCALARS cell_scalars int 1
LOOKUP_TABLE default
0 1 2 3 4 5
LOOKUP_TABLE default 6
1.0 0.0 0.0 1.0 1.0 0.0 0.0 1.0 1.0 0.0 0.0 1.0 1.0 0.0 0.0 1.0 1.0 0.0 0.0 1.0 1.0 0.0 0.0 1.0
