# vtk DataFile Version 4.0
vtk output
ASCII
DATASET POLYDATA
POINTS 8 float
12820.8894472317
10495.1906356672
1624.49
12820.8894472317
10495.1906356672
924.49
14199.9956912094
9905.21947720122
1624.49
14199.9956912094
9905.21947720122
924.49
13216.7104270995
7606.70907057167
1624.49
13216.7104270995
7606.70907057167
924.49
11837.6041831218
8196.6802290376
1624.49
11837.6041831218
8196.6802290376
924.49
POLYGONS 6 30
4 0 1 3 2 4 2 3 5 4 4 4 5 7 6 4 0 1 7 6 4 0 2 4 6 4 1 3 5 7
CELL_DATA 6
SCALARS cell_scalars int 1
LOOKUP_TABLE default
0 1 2 3 4 5
LOOKUP_TABLE default 6
1.0 0.0 0.0 1.0 1.0 0.0 0.0 1.0 1.0 0.0 0.0 1.0 1.0 0.0 0.0 1.0 1.0 0.0 0.0 1.0 1.0 0.0 0.0 1.0
