# vtk DataFile Version 4.0
vtk output
ASCII
DATASET POLYDATA
POINTS 8 float
7209.98723684315
4650.37174781354
1624.49
7209.98723684315
4650.37174781354
924.49
5727.8983273007
4419.26038026257
1624.49
5727.8983273007
4419.26038026257
924.49
5342.71271471575
6889.40856283331
1624.49
5342.71271471575
6889.40856283331
924.49
6824.80162425819
7120.51993038429
1624.49
6824.80162425819
7120.51993038429
924.49
POLYGONS 6 30
4 0 1 3 2 4 2 3 5 4 4 4 5 7 6 4 0 1 7 6 4 0 2 4 6 4 1 3 5 7
CELL_DATA 6
SCALARS cell_scalars int 1
LOOKUP_TABLE default
0 1 2 3 4 5
LOOKUP_TABLE default 6
0.0 1.0 0.0 1.0 0.0 1.0 0.0 1.0 0.0 1.0 0.0 1.0 0.0 1.0 0.0 1.0 0.0 1.0 0.0 1.0 0.0 1.0 0.0 1.0
