# vtk DataFile Version 4.0
vtk output
ASCII
DATASET POLYDATA
POINTS 8 float
14527.0352146894
10727.1588249268
1624.49
14527.0352146894
10727.1588249268
924.49
15244.8890572061
9410.08408870873
1624.49
15244.8890572061
9410.08408870873
924.49
13049.7644968426
8213.66101784758
1624.49
13049.7644968426
8213.66101784758
924.49
12331.9106543259
9530.73575406569
1624.49
12331.9106543259
9530.73575406569
924.49
POLYGONS 6 30
4 0 1 3 2 4 2 3 5 4 4 4 5 7 6 4 0 1 7 6 4 0 2 4 6 4 1 3 5 7
CELL_DATA 6
SCALARS cell_scalars int 1
LOOKUP_TABLE default
0 1 2 3 4 5
LOOKUP_TABLE default 6
1.0 0.0 0.0 1.0 1.0 0.0 0.0 1.0 1.0 0.0 0.0 1.0 1.0 0.0 0.0 1.0 1.0 0.0 0.0 1.0 1.0 0.0 0.0 1.0
