# vtk DataFile Version 4.0
vtk output
ASCII
DATASET POLYDATA
POINTS 8 float
16622.1734346324
7941.66404882789
1624.49
16622.1734346324
7941.66404882789
924.49
15196.1762277037
7476.33409510503
1624.49
15196.1762277037
7476.33409510503
924.49
14420.6263048323
9852.99610665276
1624.49
14420.6263048323
9852.99610665276
924.49
15846.6235117609
10318.3260603756
1624.49
15846.6235117609
10318.3260603756
924.49
POLYGONS 6 30
4 0 1 3 2 4 2 3 5 4 4 4 5 7 6 4 0 1 7 6 4 0 2 4 6 4 1 3 5 7
CELL_DATA 6
SCALARS cell_scalars int 1
LOOKUP_TABLE default
0 1 2 3 4 5
LOOKUP_TABLE default 6
0.0 1.0 0.0 1.0 0.0 1.0 0.0 1.0 0.0 1.0 0.0 1.0 0.0 1.0 0.0 1.0 0.0 1.0 0.0 1.0 0.0 1.0 0.0 1.0
