# vtk DataFile Version 4.0
vtk output
ASCII
DATASET POLYDATA
POINTS 8 float
1965.63577512969
10492.9495159508
1624.49
1965.63577512969
10492.9495159508
924.49
3252.7102278993
9722.59936632546
1624.49
3252.7102278993
9722.59936632546
924.49
1968.79331185706
7577.4752783761
1624.49
1968.79331185706
7577.4752783761
924.49
681.718859087442
8347.82542800145
1624.49
681.718859087442
8347.82542800145
924.49
POLYGONS 6 30
4 0 1 3 2 4 2 3 5 4 4 4 5 7 6 4 0 1 7 6 4 0 2 4 6 4 1 3 5 7
CELL_DATA 6
SCALARS cell_scalars int 1
LOOKUP_TABLE default
0 1 2 3 4 5
LOOKUP_TABLE default 6
1.0 0.0 0.0 1.0 1.0 0.0 0.0 1.0 1.0 0.0 0.0 1.0 1.0 0.0 0.0 1.0 1.0 0.0 0.0 1.0 1.0 0.0 0.0 1.0
