# vtk DataFile Version 4.0
vtk output
ASCII
DATASET POLYDATA
POINTS 8 float
12495.4068258481
7344.28964188866
1624.49
12495.4068258481
7344.28964188866
924.49
13609.9470606947
6340.3971850448
1624.49
13609.9470606947
6340.3971850448
924.49
11936.7929659549
4482.83012696708
1624.49
11936.7929659549
4482.83012696708
924.49
10822.2527311083
5486.72258381095
1624.49
10822.2527311083
5486.72258381095
924.49
POLYGONS 6 30
4 0 1 3 2 4 2 3 5 4 4 4 5 7 6 4 0 1 7 6 4 0 2 4 6 4 1 3 5 7
CELL_DATA 6
SCALARS cell_scalars int 1
LOOKUP_TABLE default
0 1 2 3 4 5
LOOKUP_TABLE default 6
0.0 1.0 0.0 1.0 0.0 1.0 0.0 1.0 0.0 1.0 0.0 1.0 0.0 1.0 0.0 1.0 0.0 1.0 0.0 1.0 0.0 1.0 0.0 1.0
