# vtk DataFile Version 4.0
vtk output
ASCII
DATASET POLYDATA
POINTS 8 float
4973.78161104268
10720.3353269421
1624.49
4973.78161104268
10720.3353269421
924.49
5204.1095126087
9238.12445875896
1624.49
5204.1095126087
9238.12445875896
924.49
2733.75806563681
8854.24462281559
1624.49
2733.75806563681
8854.24462281559
924.49
2503.43016407079
10336.4554909987
1624.49
2503.43016407079
10336.4554909987
924.49
POLYGONS 6 30
4 0 1 3 2 4 2 3 5 4 4 4 5 7 6 4 0 1 7 6 4 0 2 4 6 4 1 3 5 7
CELL_DATA 6
SCALARS cell_scalars int 1
LOOKUP_TABLE default
0 1 2 3 4 5
LOOKUP_TABLE default 6
1.0 0.0 0.0 1.0 1.0 0.0 0.0 1.0 1.0 0.0 0.0 1.0 1.0 0.0 0.0 1.0 1.0 0.0 0.0 1.0 1.0 0.0 0.0 1.0
