# vtk DataFile Version 4.0
vtk output
ASCII
DATASET POLYDATA
POINTS 8 float
12819.7662243225
10492.5650094729
1624.49
12819.7662243225
10492.5650094729
924.49
14198.8724683002
9902.593851007
1624.49
14198.8724683002
9902.593851007
924.49
13215.5872041903
7604.08344437746
1624.49
13215.5872041903
7604.08344437746
924.49
11836.4809602126
8194.05460284341
1624.49
11836.4809602126
8194.05460284341
924.49
POLYGONS 6 30
4 0 1 3 2 4 2 3 5 4 4 4 5 7 6 4 0 1 7 6 4 0 2 4 6 4 1 3 5 7
CELL_DATA 6
SCALARS cell_scalars int 1
LOOKUP_TABLE default
0 1 2 3 4 5
LOOKUP_TABLE default 6
1.0 0.0 0.0 1.0 1.0 0.0 0.0 1.0 1.0 0.0 0.0 1.0 1.0 0.0 0.0 1.0 1.0 0.0 0.0 1.0 1.0 0.0 0.0 1.0
