# vtk DataFile Version 4.0
vtk output
ASCII
DATASET POLYDATA
POINTS 8 float
8404.27804525013
4839.29622473033
1624.49
8404.27804525013
4839.29622473033
924.49
7391.64852912062
3732.68813553918
1624.49
7391.64852912062
3732.68813553918
924.49
5547.30171380202
5420.40399575503
1624.49
5547.30171380202
5420.40399575503
924.49
6559.93122993154
6527.01208494619
1624.49
6559.93122993154
6527.01208494619
924.49
POLYGONS 6 30
4 0 1 3 2 4 2 3 5 4 4 4 5 7 6 4 0 1 7 6 4 0 2 4 6 4 1 3 5 7
CELL_DATA 6
SCALARS cell_scalars int 1
LOOKUP_TABLE default
0 1 2 3 4 5
LOOKUP_TABLE default 6
0.0 1.0 0.0 1.0 0.0 1.0 0.0 1.0 0.0 1.0 0.0 1.0 0.0 1.0 0.0 1.0 0.0 1.0 0.0 1.0 0.0 1.0 0.0 1.0
