# vtk DataFile Version 4.0
vtk output
ASCII
DATASET POLYDATA
POINTS 8 float
11646.150309038
5963.42582025466
1624.49
11646.150309038
5963.42582025466
924.49
11925.3581373431
4489.64056160498
1624.49
11925.3581373431
4489.64056160498
924.49
9469.04937292696
4024.2941810964
1624.49
9469.04937292696
4024.2941810964
924.49
9189.84154462181
5498.07943974609
1624.49
9189.84154462181
5498.07943974609
924.49
POLYGONS 6 30
4 0 1 3 2 4 2 3 5 4 4 4 5 7 6 4 0 1 7 6 4 0 2 4 6 4 1 3 5 7
CELL_DATA 6
SCALARS cell_scalars int 1
LOOKUP_TABLE default
0 1 2 3 4 5
LOOKUP_TABLE default 6
1.0 0.0 0.0 1.0 1.0 0.0 0.0 1.0 1.0 0.0 0.0 1.0 1.0 0.0 0.0 1.0 1.0 0.0 0.0 1.0 1.0 0.0 0.0 1.0
