# vtk DataFile Version 4.0
vtk output
ASCII
DATASET POLYDATA
POINTS 8 float
16486.2945351325
9194.90664588991
1624.49
16486.2945351325
9194.90664588991
924.49
15717.6087677033
7906.83747424121
1624.49
15717.6087677033
7906.83747424121
924.49
13570.8268149555
9187.98041995657
1624.49
13570.8268149555
9187.98041995657
924.49
14339.5125823847
10476.0495916053
1624.49
14339.5125823847
10476.0495916053
924.49
POLYGONS 6 30
4 0 1 3 2 4 2 3 5 4 4 4 5 7 6 4 0 1 7 6 4 0 2 4 6 4 1 3 5 7
CELL_DATA 6
SCALARS cell_scalars int 1
LOOKUP_TABLE default
0 1 2 3 4 5
LOOKUP_TABLE default 6
0.0 1.0 0.0 1.0 0.0 1.0 0.0 1.0 0.0 1.0 0.0 1.0 0.0 1.0 0.0 1.0 0.0 1.0 0.0 1.0 0.0 1.0 0.0 1.0
