# vtk DataFile Version 4.0
vtk output
ASCII
DATASET POLYDATA
POINTS 8 float
16453.433420928
-690.06286932025
1624.49
16453.433420928
-690.06286932025
924.49
14953.5277649303
-673.239578735969
1624.49
14953.5277649303
-673.239578735969
924.49
14981.5665825708
1826.60318126021
1624.49
14981.5665825708
1826.60318126021
924.49
16481.4722385685
1809.77989067593
1624.49
16481.4722385685
1809.77989067593
924.49
POLYGONS 6 30
4 0 1 3 2 4 2 3 5 4 4 4 5 7 6 4 0 1 7 6 4 0 2 4 6 4 1 3 5 7
CELL_DATA 6
SCALARS cell_scalars int 1
LOOKUP_TABLE default
0 1 2 3 4 5
LOOKUP_TABLE default 6
0.0 1.0 0.0 1.0 0.0 1.0 0.0 1.0 0.0 1.0 0.0 1.0 0.0 1.0 0.0 1.0 0.0 1.0 0.0 1.0 0.0 1.0 0.0 1.0
