# vtk DataFile Version 4.0
vtk output
ASCII
DATASET POLYDATA
POINTS 8 float
9268.50467488999
5749.34307506144
1624.49
9268.50467488999
5749.34307506144
924.49
9262.13246415812
4249.35661014571
1624.49
9262.13246415812
4249.35661014571
924.49
6762.1550226319
4259.97696136549
1624.49
6762.1550226319
4259.97696136549
924.49
6768.52723336378
5759.96342628122
1624.49
6768.52723336378
5759.96342628122
924.49
POLYGONS 6 30
4 0 1 3 2 4 2 3 5 4 4 4 5 7 6 4 0 1 7 6 4 0 2 4 6 4 1 3 5 7
CELL_DATA 6
SCALARS cell_scalars int 1
LOOKUP_TABLE default
0 1 2 3 4 5
LOOKUP_TABLE default 6
0.0 1.0 0.0 1.0 0.0 1.0 0.0 1.0 0.0 1.0 0.0 1.0 0.0 1.0 0.0 1.0 0.0 1.0 0.0 1.0 0.0 1.0 0.0 1.0
