# vtk DataFile Version 4.0
vtk output
ASCII
DATASET POLYDATA
POINTS 8 float
16222.8337054763
9352.13313223817
1624.49
16222.8337054763
9352.13313223817
924.49
15454.1479380471
8064.06396058947
1624.49
15454.1479380471
8064.06396058947
924.49
13307.3659852992
9345.20690630484
1624.49
13307.3659852992
9345.20690630484
924.49
14076.0517527285
10633.2760779535
1624.49
14076.0517527285
10633.2760779535
924.49
POLYGONS 6 30
4 0 1 3 2 4 2 3 5 4 4 4 5 7 6 4 0 1 7 6 4 0 2 4 6 4 1 3 5 7
CELL_DATA 6
SCALARS cell_scalars int 1
LOOKUP_TABLE default
0 1 2 3 4 5
LOOKUP_TABLE default 6
1.0 0.0 0.0 1.0 1.0 0.0 0.0 1.0 1.0 0.0 0.0 1.0 1.0 0.0 0.0 1.0 1.0 0.0 0.0 1.0 1.0 0.0 0.0 1.0
