# vtk DataFile Version 4.0
vtk output
ASCII
DATASET POLYDATA
POINTS 8 float
6426.12459933586
9585.63571934335
1624.49
6426.12459933586
9585.63571934335
924.49
5879.2853134031
8188.8655895938
1624.49
5879.2853134031
8188.8655895938
924.49
3551.33509715387
9100.26439948174
1624.49
3551.33509715387
9100.26439948174
924.49
4098.17438308663
10497.0345292313
1624.49
4098.17438308663
10497.0345292313
924.49
POLYGONS 6 30
4 0 1 3 2 4 2 3 5 4 4 4 5 7 6 4 0 1 7 6 4 0 2 4 6 4 1 3 5 7
CELL_DATA 6
SCALARS cell_scalars int 1
LOOKUP_TABLE default
0 1 2 3 4 5
LOOKUP_TABLE default 6
1.0 0.0 0.0 1.0 1.0 0.0 0.0 1.0 1.0 0.0 0.0 1.0 1.0 0.0 0.0 1.0 1.0 0.0 0.0 1.0 1.0 0.0 0.0 1.0
