# vtk DataFile Version 4.0
vtk output
ASCII
DATASET POLYDATA
POINTS 8 float
3332.87638021015
10947.501616964
1624.49
3332.87638021015
10947.501616964
924.49
4196.44914678811
9721.02614765169
1624.49
4196.44914678811
9721.02614765169
924.49
2152.3233646009
8281.73820335508
1624.49
2152.3233646009
8281.73820335508
924.49
1288.75059802294
9508.21367266741
1624.49
1288.75059802294
9508.21367266741
924.49
POLYGONS 6 30
4 0 1 3 2 4 2 3 5 4 4 4 5 7 6 4 0 1 7 6 4 0 2 4 6 4 1 3 5 7
CELL_DATA 6
SCALARS cell_scalars int 1
LOOKUP_TABLE default
0 1 2 3 4 5
LOOKUP_TABLE default 6
1.0 0.0 0.0 1.0 1.0 0.0 0.0 1.0 1.0 0.0 0.0 1.0 1.0 0.0 0.0 1.0 1.0 0.0 0.0 1.0 1.0 0.0 0.0 1.0
