# vtk DataFile Version 4.0
vtk output
ASCII
DATASET POLYDATA
POINTS 8 float
7018.90574008322
6876.94584248123
1624.49
7018.90574008322
6876.94584248123
924.49
5578.74711647452
6457.49007741715
1624.49
5578.74711647452
6457.49007741715
924.49
4879.65417470106
8857.75445009832
1624.49
4879.65417470106
8857.75445009832
924.49
6319.81279830976
9277.2102151624
1624.49
6319.81279830976
9277.2102151624
924.49
POLYGONS 6 30
4 0 1 3 2 4 2 3 5 4 4 4 5 7 6 4 0 1 7 6 4 0 2 4 6 4 1 3 5 7
CELL_DATA 6
SCALARS cell_scalars int 1
LOOKUP_TABLE default
0 1 2 3 4 5
LOOKUP_TABLE default 6
0.0 1.0 0.0 1.0 0.0 1.0 0.0 1.0 0.0 1.0 0.0 1.0 0.0 1.0 0.0 1.0 0.0 1.0 0.0 1.0 0.0 1.0 0.0 1.0
