# vtk DataFile Version 4.0
vtk output
ASCII
DATASET POLYDATA
POINTS 8 float
6700.23341826131
8838.1251190899
1624.49
6700.23341826131
8838.1251190899
924.49
5710.4664293727
7711.02205915865
1624.49
5710.4664293727
7711.02205915865
924.49
3831.96132948728
9360.63370730632
1624.49
3831.96132948728
9360.63370730632
924.49
4821.72831837589
10487.7367672376
1624.49
4821.72831837589
10487.7367672376
924.49
POLYGONS 6 30
4 0 1 3 2 4 2 3 5 4 4 4 5 7 6 4 0 1 7 6 4 0 2 4 6 4 1 3 5 7
CELL_DATA 6
SCALARS cell_scalars int 1
LOOKUP_TABLE default
0 1 2 3 4 5
LOOKUP_TABLE default 6
0.0 1.0 0.0 1.0 0.0 1.0 0.0 1.0 0.0 1.0 0.0 1.0 0.0 1.0 0.0 1.0 0.0 1.0 0.0 1.0 0.0 1.0 0.0 1.0
