# vtk DataFile Version 4.0
vtk output
ASCII
DATASET POLYDATA
POINTS 8 float
2000.2411523612
10550.7669863372
1624.49
2000.2411523612
10550.7669863372
924.49
3287.31560513081
9780.41683671186
1624.49
3287.31560513081
9780.41683671186
924.49
2003.39868908856
7635.29274876251
1624.49
2003.39868908856
7635.29274876251
924.49
716.324236318947
8405.64289838786
1624.49
716.324236318947
8405.64289838786
924.49
POLYGONS 6 30
4 0 1 3 2 4 2 3 5 4 4 4 5 7 6 4 0 1 7 6 4 0 2 4 6 4 1 3 5 7
CELL_DATA 6
SCALARS cell_scalars int 1
LOOKUP_TABLE default
0 1 2 3 4 5
LOOKUP_TABLE default 6
1.0 0.0 0.0 1.0 1.0 0.0 0.0 1.0 1.0 0.0 0.0 1.0 1.0 0.0 0.0 1.0 1.0 0.0 0.0 1.0 1.0 0.0 0.0 1.0
