# vtk DataFile Version 4.0
vtk output
ASCII
DATASET POLYDATA
POINTS 8 float
3128.46380199143
10803.5728225344
1624.49
3128.46380199143
10803.5728225344
924.49
3992.03656856939
9577.09735322203
1624.49
3992.03656856939
9577.09735322203
924.49
2356.73594281962
8425.66699778475
1624.49
2356.73594281962
8425.66699778475
924.49
1493.16317624166
9652.14246709707
1624.49
1493.16317624166
9652.14246709707
924.49
POLYGONS 6 30
4 0 1 3 2 4 2 3 5 4 4 4 5 7 6 4 0 1 7 6 4 0 2 4 6 4 1 3 5 7
CELL_DATA 6
SCALARS cell_scalars int 1
LOOKUP_TABLE default
0 1 2 3 4 5
LOOKUP_TABLE default 6
1.0 0.0 0.0 1.0 1.0 0.0 0.0 1.0 1.0 0.0 0.0 1.0 1.0 0.0 0.0 1.0 1.0 0.0 0.0 1.0 1.0 0.0 0.0 1.0
