# vtk DataFile Version 4.0
vtk output
ASCII
DATASET POLYDATA
POINTS 8 float
1278.95954291189
9345.67455761991
1624.49
1278.95954291189
9345.67455761991
924.49
2566.03399568151
8575.32440799458
1624.49
2566.03399568151
8575.32440799458
924.49
1538.90046284775
6859.22513763508
1624.49
1538.90046284775
6859.22513763508
924.49
251.826010078117
7629.5752872604
1624.49
251.826010078117
7629.5752872604
924.49
POLYGONS 6 30
4 0 1 3 2 4 2 3 5 4 4 4 5 7 6 4 0 1 7 6 4 0 2 4 6 4 1 3 5 7
CELL_DATA 6
SCALARS cell_scalars int 1
LOOKUP_TABLE default
0 1 2 3 4 5
LOOKUP_TABLE default 6
1.0 0.0 0.0 1.0 1.0 0.0 0.0 1.0 1.0 0.0 0.0 1.0 1.0 0.0 0.0 1.0 1.0 0.0 0.0 1.0 1.0 0.0 0.0 1.0
